version 2
run General-0-20150109-15:38:29-2700
attr configname General
attr datetime 20150109-15:38:29
attr experiment General
attr inifile omnetpp.ini
attr iterationvars ""
attr iterationvars2 $repetition=0
attr measurement ""
attr network idsforwsn.networks.IDSforWSN
attr processid 2700
attr repetition 0
attr replication #0
attr resultdir results
attr runnumber 0
attr seedset 0

vector 2008  IDSforWSN.node[0].nic.ids  neighbors  ETV
vector 2009  IDSforWSN.node[0].nic.ids  forwardersMap  ETV
2009	5314463	120	19
2009	5314463	120	93
2009	5314463	120	116
2008	5314463	120	19
2008	5314463	120	27
2008	5314463	120	28
2008	5314463	120	41
2008	5314463	120	67
2008	5314463	120	68
2008	5314463	120	93
2008	5314463	120	100
2008	5314463	120	115
2008	5314463	120	116
2008	5314463	120	128
2008	5314463	120	158
2008	5314463	120	168
2008	5314463	120	210
2008	5314463	120	237
2008	5314463	120	241
vector 2010  IDSforWSN.node[1].nic.ids  neighbors  ETV
vector 2011  IDSforWSN.node[1].nic.ids  forwardersMap  ETV
2011	5314463	120	54
2011	5314463	120	76
2011	5314463	120	80
2011	5314463	120	82
2011	5314463	120	90
2011	5314463	120	108
2011	5314463	120	185
2010	5314463	120	23
2010	5314463	120	32
2010	5314463	120	40
2010	5314463	120	54
2010	5314463	120	65
2010	5314463	120	76
2010	5314463	120	80
2010	5314463	120	82
2010	5314463	120	87
2010	5314463	120	90
2010	5314463	120	105
2010	5314463	120	108
2010	5314463	120	117
2010	5314463	120	133
2010	5314463	120	134
2010	5314463	120	185
2010	5314463	120	245
vector 2012  IDSforWSN.node[2].nic.ids  neighbors  ETV
vector 2013  IDSforWSN.node[2].nic.ids  forwardersMap  ETV
2013	5314463	120	16
2013	5314463	120	71
2013	5314463	120	83
2013	5314463	120	221
2012	5314463	120	16
2012	5314463	120	30
2012	5314463	120	50
2012	5314463	120	71
2012	5314463	120	83
2012	5314463	120	97
2012	5314463	120	103
2012	5314463	120	111
2012	5314463	120	132
2012	5314463	120	221
2012	5314463	120	228
2012	5314463	120	247
vector 2014  IDSforWSN.node[3].nic.ids  neighbors  ETV
vector 2015  IDSforWSN.node[3].nic.ids  forwardersMap  ETV
2015	5314463	120	57
2015	5314463	120	120
2015	5314463	120	142
2015	5314463	120	203
2014	5314463	120	56
2014	5314463	120	57
2014	5314463	120	96
2014	5314463	120	114
2014	5314463	120	120
2014	5314463	120	126
2014	5314463	120	142
2014	5314463	120	191
2014	5314463	120	203
2014	5314463	120	204
2014	5314463	120	207
2014	5314463	120	234
vector 2016  IDSforWSN.node[4].nic.ids  neighbors  ETV
vector 2017  IDSforWSN.node[4].nic.ids  forwardersMap  ETV
2017	5314463	120	17
2017	5314463	120	35
2017	5314463	120	212
2016	5314463	120	17
2016	5314463	120	35
2016	5314463	120	42
2016	5314463	120	95
2016	5314463	120	118
2016	5314463	120	212
2016	5314463	120	229
vector 2018  IDSforWSN.node[5].nic.ids  neighbors  ETV
vector 2019  IDSforWSN.node[5].nic.ids  forwardersMap  ETV
2019	5314463	120	27
2019	5314463	120	158
2019	5314463	120	200
2018	5314463	120	27
2018	5314463	120	37
2018	5314463	120	68
2018	5314463	120	130
2018	5314463	120	135
2018	5314463	120	137
2018	5314463	120	158
2018	5314463	120	172
2018	5314463	120	200
vector 2020  IDSforWSN.node[6].nic.ids  neighbors  ETV
vector 2021  IDSforWSN.node[6].nic.ids  forwardersMap  ETV
2021	5314463	120	13
2021	5314463	120	15
2021	5314463	120	194
2021	5314463	120	197
2020	5314463	120	13
2020	5314463	120	15
2020	5314463	120	39
2020	5314463	120	73
2020	5314463	120	79
2020	5314463	120	81
2020	5314463	120	126
2020	5314463	120	140
2020	5314463	120	173
2020	5314463	120	194
2020	5314463	120	197
2020	5314463	120	244
vector 2022  IDSforWSN.node[7].nic.ids  neighbors  ETV
vector 2023  IDSforWSN.node[7].nic.ids  forwardersMap  ETV
2023	5314463	120	34
2022	5314463	120	34
2022	5314463	120	138
2022	5314463	120	161
2022	5314463	120	216
vector 2024  IDSforWSN.node[8].nic.ids  neighbors  ETV
vector 2025  IDSforWSN.node[8].nic.ids  forwardersMap  ETV
2025	5314463	120	54
2025	5314463	120	108
2024	5314463	120	19
2024	5314463	120	23
2024	5314463	120	54
2024	5314463	120	59
2024	5314463	120	70
2024	5314463	120	108
2024	5314463	120	113
2024	5314463	120	116
2024	5314463	120	185
2024	5314463	120	206
vector 2026  IDSforWSN.node[9].nic.ids  neighbors  ETV
vector 2027  IDSforWSN.node[9].nic.ids  forwardersMap  ETV
2027	5314463	120	93
2027	5314463	120	116
2027	5314463	120	136
2027	5314463	120	236
2027	5314463	120	241
2026	5314463	120	12
2026	5314463	120	28
2026	5314463	120	67
2026	5314463	120	93
2026	5314463	120	100
2026	5314463	120	115
2026	5314463	120	116
2026	5314463	120	136
2026	5314463	120	197
2026	5314463	120	209
2026	5314463	120	224
2026	5314463	120	236
2026	5314463	120	241
vector 2028  IDSforWSN.node[10].nic.ids  neighbors  ETV
vector 2029  IDSforWSN.node[10].nic.ids  forwardersMap  ETV
2029	5314463	120	18
2029	5314463	120	20
2029	5314463	120	88
2029	5314463	120	148
2029	5314463	120	190
2028	5314463	120	18
2028	5314463	120	20
2028	5314463	120	40
2028	5314463	120	88
2028	5314463	120	106
2028	5314463	120	148
2028	5314463	120	159
2028	5314463	120	162
2028	5314463	120	190
2028	5314463	120	192
2028	5314463	120	205
2028	5314463	120	226
2028	5314463	120	235
vector 2030  IDSforWSN.node[11].nic.ids  neighbors  ETV
vector 2031  IDSforWSN.node[11].nic.ids  forwardersMap  ETV
2031	5314463	120	76
2031	5314463	120	105
2031	5314463	120	106
2031	5314463	120	117
2031	5314463	120	176
2031	5314463	120	201
2030	5314463	120	40
2030	5314463	120	55
2030	5314463	120	66
2030	5314463	120	76
2030	5314463	120	78
2030	5314463	120	105
2030	5314463	120	106
2030	5314463	120	117
2030	5314463	120	134
2030	5314463	120	151
2030	5314463	120	167
2030	5314463	120	174
2030	5314463	120	176
2030	5314463	120	198
2030	5314463	120	201
vector 2032  IDSforWSN.node[12].nic.ids  neighbors  ETV
vector 2033  IDSforWSN.node[12].nic.ids  forwardersMap  ETV
2033	5314463	120	116
2033	5314463	120	136
2033	5314463	120	186
2033	5314463	120	239
2033	5314463	120	241
2032	5314463	120	9
2032	5314463	120	46
2032	5314463	120	116
2032	5314463	120	122
2032	5314463	120	136
2032	5314463	120	182
2032	5314463	120	184
2032	5314463	120	186
2032	5314463	120	209
2032	5314463	120	236
2032	5314463	120	239
2032	5314463	120	241
2032	5314463	120	246
vector 2034  IDSforWSN.node[13].nic.ids  neighbors  ETV
vector 2035  IDSforWSN.node[13].nic.ids  forwardersMap  ETV
2035	5314463	120	6
2035	5314463	120	73
2035	5314463	120	81
2035	5314463	120	142
2035	5314463	120	197
2034	5314463	120	6
2034	5314463	120	39
2034	5314463	120	56
2034	5314463	120	57
2034	5314463	120	73
2034	5314463	120	79
2034	5314463	120	81
2034	5314463	120	126
2034	5314463	120	140
2034	5314463	120	142
2034	5314463	120	197
2034	5314463	120	203
vector 2036  IDSforWSN.node[14].nic.ids  neighbors  ETV
vector 2037  IDSforWSN.node[14].nic.ids  forwardersMap  ETV
2037	5314463	120	36
2036	5314463	120	36
2036	5314463	120	43
2036	5314463	120	112
2036	5314463	120	144
2036	5314463	120	179
2036	5314463	120	215
2036	5314463	120	217
vector 2038  IDSforWSN.node[15].nic.ids  neighbors  ETV
vector 2039  IDSforWSN.node[15].nic.ids  forwardersMap  ETV
2039	5314463	120	6
2039	5314463	120	28
2039	5314463	120	41
2039	5314463	120	104
2039	5314463	120	158
2039	5314463	120	194
2039	5314463	120	237
2038	5314463	120	6
2038	5314463	120	28
2038	5314463	120	41
2038	5314463	120	104
2038	5314463	120	140
2038	5314463	120	158
2038	5314463	120	168
2038	5314463	120	172
2038	5314463	120	173
2038	5314463	120	194
2038	5314463	120	208
2038	5314463	120	237
2038	5314463	120	244
vector 2040  IDSforWSN.node[16].nic.ids  neighbors  ETV
vector 2041  IDSforWSN.node[16].nic.ids  forwardersMap  ETV
2041	5314463	120	2
2041	5314463	120	71
2041	5314463	120	221
2040	5314463	120	2
2040	5314463	120	30
2040	5314463	120	50
2040	5314463	120	71
2040	5314463	120	97
2040	5314463	120	103
2040	5314463	120	111
2040	5314463	120	132
2040	5314463	120	221
2040	5314463	120	228
2040	5314463	120	247
vector 2042  IDSforWSN.node[17].nic.ids  neighbors  ETV
vector 2043  IDSforWSN.node[17].nic.ids  forwardersMap  ETV
2043	5314463	120	35
2043	5314463	120	124
2043	5314463	120	212
2042	5314463	120	4
2042	5314463	120	35
2042	5314463	120	42
2042	5314463	120	95
2042	5314463	120	118
2042	5314463	120	124
2042	5314463	120	153
2042	5314463	120	212
2042	5314463	120	229
vector 2044  IDSforWSN.node[18].nic.ids  neighbors  ETV
vector 2045  IDSforWSN.node[18].nic.ids  forwardersMap  ETV
2045	5314463	120	20
2045	5314463	120	32
2045	5314463	120	88
2045	5314463	120	148
2045	5314463	120	190
2045	5314463	120	205
2044	5314463	120	10
2044	5314463	120	20
2044	5314463	120	32
2044	5314463	120	48
2044	5314463	120	88
2044	5314463	120	148
2044	5314463	120	159
2044	5314463	120	162
2044	5314463	120	190
2044	5314463	120	192
2044	5314463	120	196
2044	5314463	120	205
2044	5314463	120	226
2044	5314463	120	235
vector 2046  IDSforWSN.node[19].nic.ids  neighbors  ETV
vector 2047  IDSforWSN.node[19].nic.ids  forwardersMap  ETV
2047	5314463	120	0
2047	5314463	120	116
2046	5314463	120	0
2046	5314463	120	8
2046	5314463	120	27
2046	5314463	120	59
2046	5314463	120	68
2046	5314463	120	93
2046	5314463	120	113
2046	5314463	120	116
2046	5314463	120	206
2046	5314463	120	210
2046	5314463	120	241
vector 2048  IDSforWSN.node[20].nic.ids  neighbors  ETV
vector 2049  IDSforWSN.node[20].nic.ids  forwardersMap  ETV
2049	5314463	120	32
2049	5314463	120	54
2049	5314463	120	82
2049	5314463	120	87
2049	5314463	120	185
2049	5314463	120	190
2048	5314463	120	18
2048	5314463	120	32
2048	5314463	120	54
2048	5314463	120	60
2048	5314463	120	82
2048	5314463	120	87
2048	5314463	120	88
2048	5314463	120	133
2048	5314463	120	148
2048	5314463	120	159
2048	5314463	120	185
2048	5314463	120	190
2048	5314463	120	192
2048	5314463	120	205
2048	5314463	120	245
vector 2050  IDSforWSN.node[21].nic.ids  neighbors  ETV
vector 2051  IDSforWSN.node[21].nic.ids  forwardersMap  ETV
2051	5314463	120	73
2051	5314463	120	81
2051	5314463	120	197
2051	5314463	120	224
2051	5314463	120	236
2050	5314463	120	13
2050	5314463	120	73
2050	5314463	120	79
2050	5314463	120	81
2050	5314463	120	141
2050	5314463	120	142
2050	5314463	120	144
2050	5314463	120	197
2050	5314463	120	203
2050	5314463	120	209
2050	5314463	120	224
2050	5314463	120	236
vector 2052  IDSforWSN.node[22].nic.ids  neighbors  ETV
vector 2053  IDSforWSN.node[22].nic.ids  forwardersMap  ETV
2053	5314463	120	29
2053	5314463	120	70
2053	5314463	120	99
2053	5314463	120	113
2053	5314463	120	211
2052	5314463	120	29
2052	5314463	120	33
2052	5314463	120	60
2052	5314463	120	62
2052	5314463	120	63
2052	5314463	120	70
2052	5314463	120	85
2052	5314463	120	89
2052	5314463	120	99
2052	5314463	120	113
2052	5314463	120	125
2052	5314463	120	175
2052	5314463	120	195
2052	5314463	120	211
vector 2054  IDSforWSN.node[23].nic.ids  neighbors  ETV
vector 2055  IDSforWSN.node[23].nic.ids  forwardersMap  ETV
2055	5314463	120	54
2055	5314463	120	80
2055	5314463	120	82
2055	5314463	120	108
2055	5314463	120	206
2055	5314463	120	246
2054	5314463	120	1
2054	5314463	120	49
2054	5314463	120	54
2054	5314463	120	59
2054	5314463	120	65
2054	5314463	120	80
2054	5314463	120	82
2054	5314463	120	87
2054	5314463	120	90
2054	5314463	120	108
2054	5314463	120	122
2054	5314463	120	185
2054	5314463	120	206
2054	5314463	120	245
2054	5314463	120	246
vector 2056  IDSforWSN.node[24].nic.ids  neighbors  ETV
vector 2057  IDSforWSN.node[24].nic.ids  forwardersMap  ETV
2057	5314463	120	34
2057	5314463	120	38
2057	5314463	120	216
2056	5314463	120	34
2056	5314463	120	38
2056	5314463	120	118
2056	5314463	120	138
2056	5314463	120	146
2056	5314463	120	161
2056	5314463	120	188
2056	5314463	120	216
vector 2058  IDSforWSN.node[25].nic.ids  neighbors  ETV
vector 2059  IDSforWSN.node[25].nic.ids  forwardersMap  ETV
2059	5314463	120	127
2059	5314463	120	150
2059	5314463	120	152
2059	5314463	120	189
2059	5314463	120	218
2058	5314463	120	26
2058	5314463	120	77
2058	5314463	120	86
2058	5314463	120	92
2058	5314463	120	102
2058	5314463	120	127
2058	5314463	120	150
2058	5314463	120	152
2058	5314463	120	189
2058	5314463	120	213
2058	5314463	120	218
2058	5314463	120	232
vector 2060  IDSforWSN.node[26].nic.ids  neighbors  ETV
vector 2061  IDSforWSN.node[26].nic.ids  forwardersMap  ETV
2061	5314463	120	102
2061	5314463	120	150
2061	5314463	120	187
2061	5314463	120	218
2060	5314463	120	86
2060	5314463	120	91
2060	5314463	120	98
2060	5314463	120	102
2060	5314463	120	143
2060	5314463	120	145
2060	5314463	120	150
2060	5314463	120	180
2060	5314463	120	187
2060	5314463	120	218
2060	5314463	120	219
vector 2062  IDSforWSN.node[27].nic.ids  neighbors  ETV
vector 2063  IDSforWSN.node[27].nic.ids  forwardersMap  ETV
2063	5314463	120	0
2063	5314463	120	19
2063	5314463	120	70
2063	5314463	120	113
2062	5314463	120	0
2062	5314463	120	5
2062	5314463	120	19
2062	5314463	120	29
2062	5314463	120	37
2062	5314463	120	68
2062	5314463	120	70
2062	5314463	120	113
2062	5314463	120	128
2062	5314463	120	130
2062	5314463	120	137
2062	5314463	120	175
2062	5314463	120	195
2062	5314463	120	210
vector 2064  IDSforWSN.node[28].nic.ids  neighbors  ETV
vector 2065  IDSforWSN.node[28].nic.ids  forwardersMap  ETV
2065	5314463	120	0
2065	5314463	120	41
2065	5314463	120	93
2065	5314463	120	116
2065	5314463	120	241
2064	5314463	120	0
2064	5314463	120	9
2064	5314463	120	15
2064	5314463	120	41
2064	5314463	120	67
2064	5314463	120	68
2064	5314463	120	93
2064	5314463	120	100
2064	5314463	120	115
2064	5314463	120	116
2064	5314463	120	128
2064	5314463	120	158
2064	5314463	120	168
2064	5314463	120	194
2064	5314463	120	210
2064	5314463	120	236
2064	5314463	120	237
2064	5314463	120	241
vector 2066  IDSforWSN.node[29].nic.ids  neighbors  ETV
vector 2067  IDSforWSN.node[29].nic.ids  forwardersMap  ETV
2067	5314463	120	22
2067	5314463	120	70
2067	5314463	120	85
2067	5314463	120	99
2067	5314463	120	113
2066	5314463	120	22
2066	5314463	120	37
2066	5314463	120	60
2066	5314463	120	62
2066	5314463	120	70
2066	5314463	120	74
2066	5314463	120	85
2066	5314463	120	89
2066	5314463	120	99
2066	5314463	120	113
2066	5314463	120	125
2066	5314463	120	137
2066	5314463	120	175
2066	5314463	120	181
2066	5314463	120	195
2066	5314463	120	211
2066	5314463	120	249
vector 2068  IDSforWSN.node[30].nic.ids  neighbors  ETV
vector 2069  IDSforWSN.node[30].nic.ids  forwardersMap  ETV
2069	5314463	120	2
2069	5314463	120	16
2069	5314463	120	71
2069	5314463	120	221
2068	5314463	120	2
2068	5314463	120	16
2068	5314463	120	50
2068	5314463	120	71
2068	5314463	120	97
2068	5314463	120	111
2068	5314463	120	132
2068	5314463	120	221
2068	5314463	120	227
2068	5314463	120	228
2068	5314463	120	247
vector 2070  IDSforWSN.node[31].nic.ids  neighbors  ETV
vector 2071  IDSforWSN.node[31].nic.ids  forwardersMap  ETV
2071	5314463	120	62
2071	5314463	120	119
2071	5314463	120	149
2071	5314463	120	181
2071	5314463	120	199
2070	5314463	120	62
2070	5314463	120	69
2070	5314463	120	75
2070	5314463	120	89
2070	5314463	120	109
2070	5314463	120	119
2070	5314463	120	149
2070	5314463	120	154
2070	5314463	120	164
2070	5314463	120	178
2070	5314463	120	181
2070	5314463	120	193
2070	5314463	120	199
2070	5314463	120	249
vector 2072  IDSforWSN.node[32].nic.ids  neighbors  ETV
vector 2073  IDSforWSN.node[32].nic.ids  forwardersMap  ETV
2073	5314463	120	20
2073	5314463	120	54
2073	5314463	120	82
2073	5314463	120	87
2073	5314463	120	88
2073	5314463	120	90
2073	5314463	120	108
2073	5314463	120	185
2073	5314463	120	190
2072	5314463	120	1
2072	5314463	120	18
2072	5314463	120	20
2072	5314463	120	40
2072	5314463	120	54
2072	5314463	120	76
2072	5314463	120	80
2072	5314463	120	82
2072	5314463	120	87
2072	5314463	120	88
2072	5314463	120	90
2072	5314463	120	105
2072	5314463	120	106
2072	5314463	120	108
2072	5314463	120	133
2072	5314463	120	148
2072	5314463	120	159
2072	5314463	120	162
2072	5314463	120	185
2072	5314463	120	190
2072	5314463	120	245
vector 2074  IDSforWSN.node[33].nic.ids  neighbors  ETV
vector 2075  IDSforWSN.node[33].nic.ids  forwardersMap  ETV
2075	5314463	120	22
2075	5314463	120	45
2075	5314463	120	63
2075	5314463	120	99
2075	5314463	120	211
2074	5314463	120	22
2074	5314463	120	44
2074	5314463	120	45
2074	5314463	120	60
2074	5314463	120	62
2074	5314463	120	63
2074	5314463	120	85
2074	5314463	120	99
2074	5314463	120	125
2074	5314463	120	166
2074	5314463	120	211
vector 2076  IDSforWSN.node[34].nic.ids  neighbors  ETV
vector 2077  IDSforWSN.node[34].nic.ids  forwardersMap  ETV
2077	5314463	120	38
2077	5314463	120	46
2077	5314463	120	216
2076	5314463	120	7
2076	5314463	120	24
2076	5314463	120	38
2076	5314463	120	46
2076	5314463	120	52
2076	5314463	120	138
2076	5314463	120	146
2076	5314463	120	147
2076	5314463	120	161
2076	5314463	120	188
2076	5314463	120	216
vector 2078  IDSforWSN.node[35].nic.ids  neighbors  ETV
vector 2079  IDSforWSN.node[35].nic.ids  forwardersMap  ETV
2079	5314463	120	17
2079	5314463	120	124
2079	5314463	120	212
2078	5314463	120	4
2078	5314463	120	17
2078	5314463	120	42
2078	5314463	120	95
2078	5314463	120	121
2078	5314463	120	123
2078	5314463	120	124
2078	5314463	120	153
2078	5314463	120	202
2078	5314463	120	212
2078	5314463	120	220
2078	5314463	120	229
2078	5314463	120	240
vector 2080  IDSforWSN.node[36].nic.ids  neighbors  ETV
vector 2081  IDSforWSN.node[36].nic.ids  forwardersMap  ETV
2081	5314463	120	52
2080	5314463	120	14
2080	5314463	120	43
2080	5314463	120	52
2080	5314463	120	112
2080	5314463	120	144
2080	5314463	120	179
2080	5314463	120	215
2080	5314463	120	217
vector 2082  IDSforWSN.node[37].nic.ids  neighbors  ETV
vector 2083  IDSforWSN.node[37].nic.ids  forwardersMap  ETV
2083	5314463	120	27
2083	5314463	120	29
2083	5314463	120	70
2082	5314463	120	5
2082	5314463	120	27
2082	5314463	120	29
2082	5314463	120	68
2082	5314463	120	70
2082	5314463	120	74
2082	5314463	120	130
2082	5314463	120	137
2082	5314463	120	175
2082	5314463	120	195
vector 2084  IDSforWSN.node[38].nic.ids  neighbors  ETV
vector 2085  IDSforWSN.node[38].nic.ids  forwardersMap  ETV
2085	5314463	120	34
2085	5314463	120	46
2085	5314463	120	163
2085	5314463	120	165
2084	5314463	120	24
2084	5314463	120	34
2084	5314463	120	46
2084	5314463	120	146
2084	5314463	120	147
2084	5314463	120	163
2084	5314463	120	165
2084	5314463	120	212
2084	5314463	120	216
vector 2086  IDSforWSN.node[39].nic.ids  neighbors  ETV
vector 2087  IDSforWSN.node[39].nic.ids  forwardersMap  ETV
2087	5314463	120	6
2087	5314463	120	13
2086	5314463	120	6
2086	5314463	120	13
2086	5314463	120	57
2086	5314463	120	79
2086	5314463	120	84
2086	5314463	120	126
2086	5314463	120	140
2086	5314463	120	173
2086	5314463	120	244
vector 2088  IDSforWSN.node[40].nic.ids  neighbors  ETV
vector 2089  IDSforWSN.node[40].nic.ids  forwardersMap  ETV
2089	5314463	120	20
2089	5314463	120	32
2089	5314463	120	76
2089	5314463	120	82
2089	5314463	120	87
2089	5314463	120	88
2089	5314463	120	90
2089	5314463	120	105
2089	5314463	120	106
2089	5314463	120	185
2089	5314463	120	190
2088	5314463	120	1
2088	5314463	120	10
2088	5314463	120	11
2088	5314463	120	18
2088	5314463	120	20
2088	5314463	120	32
2088	5314463	120	55
2088	5314463	120	76
2088	5314463	120	82
2088	5314463	120	87
2088	5314463	120	88
2088	5314463	120	90
2088	5314463	120	105
2088	5314463	120	106
2088	5314463	120	117
2088	5314463	120	133
2088	5314463	120	134
2088	5314463	120	148
2088	5314463	120	159
2088	5314463	120	162
2088	5314463	120	185
2088	5314463	120	190
2088	5314463	120	198
2088	5314463	120	245
vector 2090  IDSforWSN.node[41].nic.ids  neighbors  ETV
vector 2091  IDSforWSN.node[41].nic.ids  forwardersMap  ETV
2091	5314463	120	0
2091	5314463	120	15
2091	5314463	120	28
2091	5314463	120	93
2091	5314463	120	237
2090	5314463	120	0
2090	5314463	120	15
2090	5314463	120	28
2090	5314463	120	67
2090	5314463	120	93
2090	5314463	120	100
2090	5314463	120	104
2090	5314463	120	115
2090	5314463	120	128
2090	5314463	120	158
2090	5314463	120	168
2090	5314463	120	173
2090	5314463	120	194
2090	5314463	120	210
2090	5314463	120	237
vector 2092  IDSforWSN.node[42].nic.ids  neighbors  ETV
vector 2093  IDSforWSN.node[42].nic.ids  forwardersMap  ETV
2093	5314463	120	17
2093	5314463	120	35
2093	5314463	120	95
2092	5314463	120	4
2092	5314463	120	17
2092	5314463	120	35
2092	5314463	120	53
2092	5314463	120	95
2092	5314463	120	123
2092	5314463	120	153
2092	5314463	120	220
2092	5314463	120	229
2092	5314463	120	231
2092	5314463	120	243
vector 2094  IDSforWSN.node[43].nic.ids  neighbors  ETV
vector 2095  IDSforWSN.node[43].nic.ids  forwardersMap  ETV
2095	5314463	120	36
2095	5314463	120	203
2094	5314463	120	14
2094	5314463	120	36
2094	5314463	120	56
2094	5314463	120	112
2094	5314463	120	120
2094	5314463	120	144
2094	5314463	120	179
2094	5314463	120	203
2094	5314463	120	215
2094	5314463	120	217
2094	5314463	120	234
vector 2096  IDSforWSN.node[44].nic.ids  neighbors  ETV
vector 2097  IDSforWSN.node[44].nic.ids  forwardersMap  ETV
2097	5314463	120	33
2097	5314463	120	62
2097	5314463	120	107
2097	5314463	120	149
2096	5314463	120	33
2096	5314463	120	61
2096	5314463	120	62
2096	5314463	120	72
2096	5314463	120	107
2096	5314463	120	110
2096	5314463	120	149
2096	5314463	120	166
2096	5314463	120	171
2096	5314463	120	178
2096	5314463	120	193
2096	5314463	120	199
vector 2098  IDSforWSN.node[45].nic.ids  neighbors  ETV
vector 2099  IDSforWSN.node[45].nic.ids  forwardersMap  ETV
2099	5314463	120	18
2099	5314463	120	20
2099	5314463	120	63
2099	5314463	120	205
2098	5314463	120	18
2098	5314463	120	20
2098	5314463	120	33
2098	5314463	120	48
2098	5314463	120	63
2098	5314463	120	166
2098	5314463	120	196
2098	5314463	120	205
2098	5314463	120	226
vector 2100  IDSforWSN.node[46].nic.ids  neighbors  ETV
vector 2101  IDSforWSN.node[46].nic.ids  forwardersMap  ETV
2101	5314463	120	34
2101	5314463	120	163
2101	5314463	120	186
2100	5314463	120	34
2100	5314463	120	38
2100	5314463	120	147
2100	5314463	120	161
2100	5314463	120	163
2100	5314463	120	165
2100	5314463	120	182
2100	5314463	120	184
2100	5314463	120	186
vector 2102  IDSforWSN.node[47].nic.ids  neighbors  ETV
vector 2103  IDSforWSN.node[47].nic.ids  forwardersMap  ETV
2103	5314463	120	172
2103	5314463	120	233
2102	5314463	120	101
2102	5314463	120	172
2102	5314463	120	208
2102	5314463	120	233
vector 2104  IDSforWSN.node[48].nic.ids  neighbors  ETV
vector 2105  IDSforWSN.node[48].nic.ids  forwardersMap  ETV
2105	5314463	120	18
2105	5314463	120	196
2105	5314463	120	205
2105	5314463	120	226
2104	5314463	120	18
2104	5314463	120	45
2104	5314463	120	71
2104	5314463	120	159
2104	5314463	120	169
2104	5314463	120	192
2104	5314463	120	196
2104	5314463	120	205
2104	5314463	120	226
2104	5314463	120	235
vector 2106  IDSforWSN.node[49].nic.ids  neighbors  ETV
vector 2107  IDSforWSN.node[49].nic.ids  forwardersMap  ETV
2107	5314463	120	80
2107	5314463	120	122
2107	5314463	120	186
2107	5314463	120	206
2107	5314463	120	239
2107	5314463	120	246
2106	5314463	120	1
2106	5314463	120	23
2106	5314463	120	65
2106	5314463	120	80
2106	5314463	120	122
2106	5314463	120	147
2106	5314463	120	157
2106	5314463	120	163
2106	5314463	120	183
2106	5314463	120	186
2106	5314463	120	206
2106	5314463	120	239
2106	5314463	120	242
2106	5314463	120	246
2106	5314463	120	248
vector 2108  IDSforWSN.node[50].nic.ids  neighbors  ETV
vector 2109  IDSforWSN.node[50].nic.ids  forwardersMap  ETV
2109	5314463	120	2
2109	5314463	120	16
2109	5314463	120	71
2109	5314463	120	221
2108	5314463	120	2
2108	5314463	120	16
2108	5314463	120	30
2108	5314463	120	71
2108	5314463	120	97
2108	5314463	120	111
2108	5314463	120	132
2108	5314463	120	221
2108	5314463	120	228
2108	5314463	120	247
vector 2110  IDSforWSN.node[51].nic.ids  neighbors  ETV
vector 2111  IDSforWSN.node[51].nic.ids  forwardersMap  ETV
2111	5314463	120	78
2111	5314463	120	155
2111	5314463	120	167
2111	5314463	120	238
2110	5314463	120	78
2110	5314463	120	94
2110	5314463	120	121
2110	5314463	120	139
2110	5314463	120	151
2110	5314463	120	155
2110	5314463	120	156
2110	5314463	120	167
2110	5314463	120	177
2110	5314463	120	202
2110	5314463	120	220
2110	5314463	120	238
2110	5314463	120	240
vector 2112  IDSforWSN.node[52].nic.ids  neighbors  ETV
vector 2113  IDSforWSN.node[52].nic.ids  forwardersMap  ETV
2113	5314463	120	34
2113	5314463	120	46
2113	5314463	120	182
2112	5314463	120	34
2112	5314463	120	36
2112	5314463	120	46
2112	5314463	120	144
2112	5314463	120	161
2112	5314463	120	182
2112	5314463	120	184
2112	5314463	120	209
vector 2114  IDSforWSN.node[53].nic.ids  neighbors  ETV
vector 2115  IDSforWSN.node[53].nic.ids  forwardersMap  ETV
2115	5314463	120	42
2115	5314463	120	95
2114	5314463	120	95
2114	5314463	120	229
2114	5314463	120	231
2114	5314463	120	243
vector 2116  IDSforWSN.node[54].nic.ids  neighbors  ETV
vector 2117  IDSforWSN.node[54].nic.ids  forwardersMap  ETV
2117	5314463	120	8
2117	5314463	120	108
2116	5314463	120	8
2116	5314463	120	23
2116	5314463	120	70
2116	5314463	120	80
2116	5314463	120	82
2116	5314463	120	87
2116	5314463	120	90
2116	5314463	120	108
2116	5314463	120	113
2116	5314463	120	185
2116	5314463	120	206
vector 2118  IDSforWSN.node[55].nic.ids  neighbors  ETV
vector 2119  IDSforWSN.node[55].nic.ids  forwardersMap  ETV
2119	5314463	120	76
2119	5314463	120	82
2119	5314463	120	88
2119	5314463	120	90
2119	5314463	120	105
2119	5314463	120	106
2118	5314463	120	1
2118	5314463	120	11
2118	5314463	120	40
2118	5314463	120	76
2118	5314463	120	82
2118	5314463	120	88
2118	5314463	120	90
2118	5314463	120	105
2118	5314463	120	106
2118	5314463	120	117
2118	5314463	120	133
2118	5314463	120	134
2118	5314463	120	162
2118	5314463	120	174
2118	5314463	120	176
2118	5314463	120	198
2118	5314463	120	201
2118	5314463	120	245
vector 2120  IDSforWSN.node[56].nic.ids  neighbors  ETV
vector 2121  IDSforWSN.node[56].nic.ids  forwardersMap  ETV
2121	5314463	120	13
2121	5314463	120	73
2121	5314463	120	81
2121	5314463	120	120
2121	5314463	120	142
2121	5314463	120	203
2120	5314463	120	3
2120	5314463	120	13
2120	5314463	120	57
2120	5314463	120	73
2120	5314463	120	81
2120	5314463	120	114
2120	5314463	120	120
2120	5314463	120	126
2120	5314463	120	142
2120	5314463	120	179
2120	5314463	120	203
2120	5314463	120	207
2120	5314463	120	215
2120	5314463	120	217
2120	5314463	120	234
vector 2122  IDSforWSN.node[57].nic.ids  neighbors  ETV
vector 2123  IDSforWSN.node[57].nic.ids  forwardersMap  ETV
2123	5314463	120	13
2123	5314463	120	81
2123	5314463	120	142
2123	5314463	120	203
2122	5314463	120	3
2122	5314463	120	13
2122	5314463	120	39
2122	5314463	120	56
2122	5314463	120	81
2122	5314463	120	84
2122	5314463	120	96
2122	5314463	120	120
2122	5314463	120	126
2122	5314463	120	142
2122	5314463	120	203
2122	5314463	120	234
vector 2124  IDSforWSN.node[58].nic.ids  neighbors  ETV
vector 2125  IDSforWSN.node[58].nic.ids  forwardersMap  ETV
2125	5314463	120	102
2125	5314463	120	127
2124	5314463	120	91
2124	5314463	120	102
2124	5314463	120	127
2124	5314463	120	143
2124	5314463	120	150
2124	5314463	120	213
2124	5314463	120	219
2124	5314463	120	232
vector 2126  IDSforWSN.node[59].nic.ids  neighbors  ETV
vector 2127  IDSforWSN.node[59].nic.ids  forwardersMap  ETV
2127	5314463	120	116
2127	5314463	120	206
2127	5314463	120	239
2126	5314463	120	8
2126	5314463	120	19
2126	5314463	120	93
2126	5314463	120	116
2126	5314463	120	122
2126	5314463	120	136
2126	5314463	120	186
2126	5314463	120	206
2126	5314463	120	239
2126	5314463	120	241
2126	5314463	120	246
vector 2128  IDSforWSN.node[60].nic.ids  neighbors  ETV
vector 2129  IDSforWSN.node[60].nic.ids  forwardersMap  ETV
2129	5314463	120	54
2129	5314463	120	70
2129	5314463	120	87
2129	5314463	120	99
2129	5314463	120	113
2129	5314463	120	211
2128	5314463	120	20
2128	5314463	120	22
2128	5314463	120	29
2128	5314463	120	33
2128	5314463	120	54
2128	5314463	120	63
2128	5314463	120	70
2128	5314463	120	87
2128	5314463	120	99
2128	5314463	120	113
2128	5314463	120	125
2128	5314463	120	185
2128	5314463	120	211
vector 2130  IDSforWSN.node[61].nic.ids  neighbors  ETV
vector 2131  IDSforWSN.node[61].nic.ids  forwardersMap  ETV
2131	5314463	120	44
2131	5314463	120	107
2130	5314463	120	44
2130	5314463	120	64
2130	5314463	120	72
2130	5314463	120	107
2130	5314463	120	110
2130	5314463	120	166
2130	5314463	120	169
2130	5314463	120	171
2130	5314463	120	193
vector 2132  IDSforWSN.node[62].nic.ids  neighbors  ETV
vector 2133  IDSforWSN.node[62].nic.ids  forwardersMap  ETV
2133	5314463	120	22
2133	5314463	120	29
2133	5314463	120	33
2133	5314463	120	85
2133	5314463	120	99
2133	5314463	120	107
2133	5314463	120	181
2133	5314463	120	211
2132	5314463	120	22
2132	5314463	120	29
2132	5314463	120	31
2132	5314463	120	33
2132	5314463	120	44
2132	5314463	120	63
2132	5314463	120	85
2132	5314463	120	89
2132	5314463	120	99
2132	5314463	120	107
2132	5314463	120	109
2132	5314463	120	125
2132	5314463	120	149
2132	5314463	120	181
2132	5314463	120	193
2132	5314463	120	199
2132	5314463	120	211
2132	5314463	120	249
vector 2134  IDSforWSN.node[63].nic.ids  neighbors  ETV
vector 2135  IDSforWSN.node[63].nic.ids  forwardersMap  ETV
2135	5314463	120	20
2135	5314463	120	99
2135	5314463	120	113
2135	5314463	120	211
2134	5314463	120	20
2134	5314463	120	22
2134	5314463	120	33
2134	5314463	120	45
2134	5314463	120	60
2134	5314463	120	85
2134	5314463	120	99
2134	5314463	120	113
2134	5314463	120	125
2134	5314463	120	205
2134	5314463	120	211
vector 2136  IDSforWSN.node[64].nic.ids  neighbors  ETV
vector 2137  IDSforWSN.node[64].nic.ids  forwardersMap  ETV
2137	5314463	120	61
2137	5314463	120	169
2136	5314463	120	61
2136	5314463	120	110
2136	5314463	120	166
2136	5314463	120	169
2136	5314463	120	170
2136	5314463	120	227
vector 2138  IDSforWSN.node[65].nic.ids  neighbors  ETV
vector 2139  IDSforWSN.node[65].nic.ids  forwardersMap  ETV
2139	5314463	120	49
2139	5314463	120	76
2139	5314463	120	80
2139	5314463	120	90
2138	5314463	120	1
2138	5314463	120	23
2138	5314463	120	49
2138	5314463	120	76
2138	5314463	120	80
2138	5314463	120	90
2138	5314463	120	105
2138	5314463	120	117
2138	5314463	120	134
2138	5314463	120	157
2138	5314463	120	163
2138	5314463	120	183
2138	5314463	120	242
2138	5314463	120	248
vector 2140  IDSforWSN.node[66].nic.ids  neighbors  ETV
vector 2141  IDSforWSN.node[66].nic.ids  forwardersMap  ETV
2141	5314463	120	78
2141	5314463	120	174
2141	5314463	120	176
2141	5314463	120	198
2141	5314463	120	201
2141	5314463	120	230
2140	5314463	120	11
2140	5314463	120	78
2140	5314463	120	94