file 117305 1420814388                                          
version 2
run General-0-20150109-15:38:29-2700
attr configname General
attr datetime 20150109-15:38:29
attr experiment General
attr inifile omnetpp.ini
attr iterationvars ""
attr iterationvars2 $repetition=0
attr measurement ""
attr network idsforwsn.networks.IDSforWSN
attr processid 2700
attr repetition 0
attr replication #0
attr resultdir results
attr runnumber 0
attr seedset 0

vector 2008  IDSforWSN.node[0].nic.ids  neighbors  ETV
vector 2009  IDSforWSN.node[0].nic.ids  forwardersMap  ETV
2009	517 64 5314463 5314463 120 120 3 19 116 228 22466
2008	581 345 5314463 5314463 120 120 16 19 241 1816 285920
vector 2010  IDSforWSN.node[1].nic.ids  neighbors  ETV
vector 2011  IDSforWSN.node[1].nic.ids  forwardersMap  ETV
2011	1042 149 5314463 5314463 120 120 7 54 185 675 75805
2010	1191 364 5314463 5314463 120 120 17 23 245 1656 211136
vector 2012  IDSforWSN.node[2].nic.ids  neighbors  ETV
vector 2013  IDSforWSN.node[2].nic.ids  forwardersMap  ETV
2013	1671 85 5314463 5314463 120 120 4 16 221 391 61027
2012	1756 258 5314463 5314463 120 120 12 16 247 1389 227183
vector 2014  IDSforWSN.node[3].nic.ids  neighbors  ETV
vector 2015  IDSforWSN.node[3].nic.ids  forwardersMap  ETV
2015	2130 87 5314463 5314463 120 120 4 57 203 522 79022
2014	2217 261 5314463 5314463 120 120 12 56 234 1750 295948
vector 2016  IDSforWSN.node[4].nic.ids  neighbors  ETV
vector 2017  IDSforWSN.node[4].nic.ids  forwardersMap  ETV
2017	2594 64 5314463 5314463 120 120 3 17 212 264 46458
2016	2658 150 5314463 5314463 120 120 7 17 229 748 123612
vector 2018  IDSforWSN.node[5].nic.ids  neighbors  ETV
vector 2019  IDSforWSN.node[5].nic.ids  forwardersMap  ETV
2019	2924 65 5314463 5314463 120 120 3 27 200 385 65693
2018	2989 195 5314463 5314463 120 120 9 27 200 1064 155164
vector 2020  IDSforWSN.node[6].nic.ids  neighbors  ETV
vector 2021  IDSforWSN.node[6].nic.ids  forwardersMap  ETV
2021	3300 86 5314463 5314463 120 120 4 13 197 419 76839
2020	3386 258 5314463 5314463 120 120 12 13 244 1374 221432
vector 2022  IDSforWSN.node[7].nic.ids  neighbors  ETV
vector 2023  IDSforWSN.node[7].nic.ids  forwardersMap  ETV
2023	3760 21 5314463 5314463 120 120 1 34 34 34 1156
2022	3781 87 5314463 5314463 120 120 4 34 216 549 92777
vector 2024  IDSforWSN.node[8].nic.ids  neighbors  ETV
vector 2025  IDSforWSN.node[8].nic.ids  forwardersMap  ETV
2025	3984 43 5314463 5314463 120 120 2 54 108 162 14580
2024	4027 215 5314463 5314463 120 120 10 19 206 953 126737
vector 2026  IDSforWSN.node[9].nic.ids  neighbors  ETV
vector 2027  IDSforWSN.node[9].nic.ids  forwardersMap  ETV
2027	4358 109 5314463 5314463 120 120 5 93 241 822 154378
2026	4467 282 5314463 5314463 120 120 13 12 241 1774 315686
vector 2028  IDSforWSN.node[10].nic.ids  neighbors  ETV
vector 2029  IDSforWSN.node[10].nic.ids  forwardersMap  ETV
2029	4867 107 5314463 5314463 120 120 5 18 190 464 66472
2028	4974 282 5314463 5314463 120 120 13 18 235 1789 316023
vector 2030  IDSforWSN.node[11].nic.ids  neighbors  ETV
vector 2031  IDSforWSN.node[11].nic.ids  forwardersMap  ETV
2031	5374 131 5314463 5314463 120 120 6 76 201 781 113103
2030	5505 325 5314463 5314463 120 120 15 40 201 1844 266294
vector 2032  IDSforWSN.node[12].nic.ids  neighbors  ETV
vector 2033  IDSforWSN.node[12].nic.ids  forwardersMap  ETV
2033	5948 110 5314463 5314463 120 120 5 116 241 918 181750
2032	6058 283 5314463 5314463 120 120 13 9 246 2152 425704
vector 2034  IDSforWSN.node[13].nic.ids  neighbors  ETV
vector 2035  IDSforWSN.node[13].nic.ids  forwardersMap  ETV
2035	6459 106 5314463 5314463 120 120 5 6 197 499 70899
2034	6565 256 5314463 5314463 120 120 12 6 203 1199 161731
vector 2036  IDSforWSN.node[14].nic.ids  neighbors  ETV
vector 2037  IDSforWSN.node[14].nic.ids  forwardersMap  ETV
2037	6939 21 5314463 5314463 120 120 1 36 36 36 1296
2036	6960 152 5314463 5314463 120 120 7 36 217 946 161780
vector 2038  IDSforWSN.node[15].nic.ids  neighbors  ETV
vector 2039  IDSforWSN.node[15].nic.ids  forwardersMap  ETV
2039	7230 150 5314463 5314463 120 120 7 6 237 768 132086
2038	7380 282 5314463 5314463 120 120 13 6 244 1873 342223
vector 2040  IDSforWSN.node[16].nic.ids  neighbors  ETV
vector 2041  IDSforWSN.node[16].nic.ids  forwardersMap  ETV
2041	7780 63 5314463 5314463 120 120 3 2 221 294 53886
2040	7843 236 5314463 5314463 120 120 11 2 247 1292 220042
vector 2042  IDSforWSN.node[17].nic.ids  neighbors  ETV
vector 2043  IDSforWSN.node[17].nic.ids  forwardersMap  ETV
2043	8197 65 5314463 5314463 120 120 3 35 212 371 61545
2042	8262 193 5314463 5314463 120 120 9 4 229 1012 162124
vector 2044  IDSforWSN.node[18].nic.ids  neighbors  ETV
vector 2045  IDSforWSN.node[18].nic.ids  forwardersMap  ETV
2045	8573 129 5314463 5314463 120 120 6 20 205 683 109197
2044	8702 303 5314463 5314463 120 120 14 10 235 1911 344707
vector 2046  IDSforWSN.node[19].nic.ids  neighbors  ETV
vector 2047  IDSforWSN.node[19].nic.ids  forwardersMap  ETV
2047	9123 42 5314463 5314463 120 120 2 0 116 116 13456
2046	9165 234 5314463 5314463 120 120 11 0 241 1141 188389
vector 2048  IDSforWSN.node[20].nic.ids  neighbors  ETV
vector 2049  IDSforWSN.node[20].nic.ids  forwardersMap  ETV
2049	9517 128 5314463 5314463 120 120 6 32 190 630 88558
2048	9645 323 5314463 5314463 120 120 15 18 245 1878 304014
vector 2050  IDSforWSN.node[21].nic.ids  neighbors  ETV
vector 2051  IDSforWSN.node[21].nic.ids  forwardersMap  ETV
2051	10086 108 5314463 5314463 120 120 5 73 236 811 156571
2050	10194 260 5314463 5314463 120 120 12 13 236 1742 308652
vector 2052  IDSforWSN.node[22].nic.ids  neighbors  ETV
vector 2053  IDSforWSN.node[22].nic.ids  forwardersMap  ETV
2053	10572 107 5314463 5314463 120 120 5 29 211 522 72832
2052	10679 299 5314463 5314463 120 120 14 29 211 1409 184755
vector 2054  IDSforWSN.node[23].nic.ids  neighbors  ETV
vector 2055  IDSforWSN.node[23].nic.ids  forwardersMap  ETV
2055	11096 129 5314463 5314463 120 120 6 54 246 776 130656
2054	11225 320 5314463 5314463 120 120 15 1 246 1679 265567
vector 2056  IDSforWSN.node[24].nic.ids  neighbors  ETV
vector 2057  IDSforWSN.node[24].nic.ids  forwardersMap  ETV
2057	11663 64 5314463 5314463 120 120 3 34 216 288 49256
2056	11727 174 5314463 5314463 120 120 8 34 216 1039 164805
vector 2058  IDSforWSN.node[25].nic.ids  neighbors  ETV
vector 2059  IDSforWSN.node[25].nic.ids  forwardersMap  ETV
2059	12019 110 5314463 5314463 120 120 5 127 218 836 144978
2058	12129 260 5314463 5314463 120 120 12 26 232 1664 277040
vector 2060  IDSforWSN.node[26].nic.ids  neighbors  ETV
vector 2061  IDSforWSN.node[26].nic.ids  forwardersMap  ETV
2061	12507 88 5314463 5314463 120 120 4 102 218 657 115397
2060	12595 239 5314463 5314463 120 120 11 86 219 1619 262513
vector 2062  IDSforWSN.node[27].nic.ids  neighbors  ETV
vector 2063  IDSforWSN.node[27].nic.ids  forwardersMap  ETV
2063	12952 84 5314463 5314463 120 120 4 0 113 202 18030
2062	13036 299 5314463 5314463 120 120 14 0 210 1316 189692
vector 2064  IDSforWSN.node[28].nic.ids  neighbors  ETV
vector 2065  IDSforWSN.node[28].nic.ids  forwardersMap  ETV
2065	13453 106 5314463 5314463 120 120 5 0 241 491 81867
2064	13559 387 5314463 5314463 120 120 18 0 241 2196 377684
vector 2066  IDSforWSN.node[29].nic.ids  neighbors  ETV
vector 2067  IDSforWSN.node[29].nic.ids  forwardersMap  ETV
2067	14064 106 5314463 5314463 120 120 5 22 113 389 35179
2066	14170 365 5314463 5314463 120 120 17 22 249 1984 299716
vector 2068  IDSforWSN.node[30].nic.ids  neighbors  ETV
vector 2069  IDSforWSN.node[30].nic.ids  forwardersMap  ETV
2069	14653 84 5314463 5314463 120 120 4 2 221 310 54142
2068	14737 236 5314463 5314463 120 120 11 2 247 1402 260318
vector 2070  IDSforWSN.node[31].nic.ids  neighbors  ETV
vector 2071  IDSforWSN.node[31].nic.ids  forwardersMap  ETV
2071	15091 109 5314463 5314463 120 120 5 62 199 710 112568
2070	15200 304 5314463 5314463 120 120 14 62 249 1990 324302
vector 2072  IDSforWSN.node[32].nic.ids  neighbors  ETV
vector 2073  IDSforWSN.node[32].nic.ids  forwardersMap  ETV
2073	15622 192 5314463 5314463 120 120 9 20 190 904 115442
2072	15814 450 5314463 5314463 120 120 21 1 245 2177 302947
vector 2074  IDSforWSN.node[33].nic.ids  neighbors  ETV
vector 2075  IDSforWSN.node[33].nic.ids  forwardersMap  ETV
2075	16382 106 5314463 5314463 120 120 5 22 211 440 60800
2074	16488 234 5314463 5314463 120 120 11 22 211 982 120586
vector 2076  IDSforWSN.node[34].nic.ids  neighbors  ETV
vector 2077  IDSforWSN.node[34].nic.ids  forwardersMap  ETV
2077	16840 64 5314463 5314463 120 120 3 38 216 300 50216
2076	16904 236 5314463 5314463 120 120 11 7 216 1163 176779
vector 2078  IDSforWSN.node[35].nic.ids  neighbors  ETV
vector 2079  IDSforWSN.node[35].nic.ids  forwardersMap  ETV
2079	17258 65 5314463 5314463 120 120 3 17 212 353 60609
2078	17323 281 5314463 5314463 120 120 13 4 240 1782 323838
vector 2080  IDSforWSN.node[36].nic.ids  neighbors  ETV
vector 2081  IDSforWSN.node[36].nic.ids  forwardersMap  ETV
2081	17722 21 5314463 5314463 120 120 1 52 52 52 2704
2080	17743 173 5314463 5314463 120 120 8 14 217 976 163384
vector 2082  IDSforWSN.node[37].nic.ids  neighbors  ETV
vector 2083  IDSforWSN.node[37].nic.ids  forwardersMap  ETV
2083	18034 63 5314463 5314463 120 120 3 27 70 126 6470
2082	18097 213 5314463 5314463 120 120 10 5 195 910 120914
vector 2084  IDSforWSN.node[38].nic.ids  neighbors  ETV
vector 2085  IDSforWSN.node[38].nic.ids  forwardersMap  ETV
2085	18428 86 5314463 5314463 120 120 4 34 165 408 57066
2084	18514 195 5314463 5314463 120 120 9 24 216 1153 192167
vector 2086  IDSforWSN.node[39].nic.ids  neighbors  ETV
vector 2087  IDSforWSN.node[39].nic.ids  forwardersMap  ETV
2087	18827 41 5314463 5314463 120 120 2 6 13 19 205
2086	18868 192 5314463 5314463 120 120 9 6 244 922 141692
vector 2088  IDSforWSN.node[40].nic.ids  neighbors  ETV
vector 2089  IDSforWSN.node[40].nic.ids  forwardersMap  ETV
2089	19178 235 5314463 5314463 120 120 11 20 190 1061 129923
2088	19413 515 5314463 5314463 120 120 24 1 245 2452 355486
vector 2090  IDSforWSN.node[41].nic.ids  neighbors  ETV
vector 2091  IDSforWSN.node[41].nic.ids  forwardersMap  ETV
2091	20046 105 5314463 5314463 120 120 5 0 237 373 65827
2090	20151 324 5314463 5314463 120 120 15 0 237 1790 285594
vector 2092  IDSforWSN.node[42].nic.ids  neighbors  ETV
vector 2093  IDSforWSN.node[42].nic.ids  forwardersMap  ETV
2093	20593 63 5314463 5314463 120 120 3 17 95 147 10539
2092	20656 236 5314463 5314463 120 120 11 4 243 1403 265153
vector 2094  IDSforWSN.node[43].nic.ids  neighbors  ETV
vector 2095  IDSforWSN.node[43].nic.ids  forwardersMap  ETV
2095	21010 43 5314463 5314463 120 120 2 36 203 239 42505
2094	21053 239 5314463 5314463 120 120 11 14 234 1530 273628
vector 2096  IDSforWSN.node[44].nic.ids  neighbors  ETV
vector 2097  IDSforWSN.node[44].nic.ids  forwardersMap  ETV
2097	21410 86 5314463 5314463 120 120 4 33 149 351 38583
2096	21496 260 5314463 5314463 120 120 12 33 199 1501 224919
vector 2098  IDSforWSN.node[45].nic.ids  neighbors  ETV
vector 2099  IDSforWSN.node[45].nic.ids  forwardersMap  ETV
2099	21874 85 5314463 5314463 120 120 4 18 205 306 46718
2098	21959 193 5314463 5314463 120 120 9 18 226 975 167159
vector 2100  IDSforWSN.node[46].nic.ids  neighbors  ETV
vector 2101  IDSforWSN.node[46].nic.ids  forwardersMap  ETV
2101	22270 65 5314463 5314463 120 120 3 34 186 383 62321
2100	22335 196 5314463 5314463 120 120 9 34 186 1260 205500
vector 2102  IDSforWSN.node[47].nic.ids  neighbors  ETV
vector 2103  IDSforWSN.node[47].nic.ids  forwardersMap  ETV
2103	22649 44 5314463 5314463 120 120 2 172 233 405 83873
2102	22693 88 5314463 5314463 120 120 4 101 233 714 137338
vector 2104  IDSforWSN.node[48].nic.ids  neighbors  ETV
vector 2105  IDSforWSN.node[48].nic.ids  forwardersMap  ETV
2105	22899 87 5314463 5314463 120 120 4 18 226 645 131841
2104	22986 217 5314463 5314463 120 120 10 18 235 1516 284838
vector 2106  IDSforWSN.node[49].nic.ids  neighbors  ETV
vector 2107  IDSforWSN.node[49].nic.ids  forwardersMap  ETV
2107	23321 131 5314463 5314463 120 120 6 80 246 1079 215953
2106	23452 325 5314463 5314463 120 120 15 1 248 2308 447092
vector 2108  IDSforWSN.node[50].nic.ids  neighbors  ETV
vector 2109  IDSforWSN.node[50].nic.ids  forwardersMap  ETV
2109	23895 84 5314463 5314463 120 120 4 2 221 310 54142
2108	23979 214 5314463 5314463 120 120 10 2 247 1155 207189
vector 2110  IDSforWSN.node[51].nic.ids  neighbors  ETV
vector 2111  IDSforWSN.node[51].nic.ids  forwardersMap  ETV
2111	24311 87 5314463 5314463 120 120 4 78 238 638 114642
2110	24398 284 5314463 5314463 120 120 13 78 240 2138 382710
vector 2112  IDSforWSN.node[52].nic.ids  neighbors  ETV
vector 2113  IDSforWSN.node[52].nic.ids  forwardersMap  ETV
2113	24800 64 5314463 5314463 120 120 3 34 182 262 36396
2112	24864 173 5314463 5314463 120 120 8 34 209 996 161886
vector 2114  IDSforWSN.node[53].nic.ids  neighbors  ETV
vector 2115  IDSforWSN.node[53].nic.ids  forwardersMap  ETV
2115	25155 42 5314463 5314463 120 120 2 42 95 137 10789
2114	25197 87 5314463 5314463 120 120 4 95 243 798 173876
vector 2116  IDSforWSN.node[54].nic.ids  neighbors  ETV
vector 2117  IDSforWSN.node[54].nic.ids  forwardersMap  ETV
2117	25402 42 5314463 5314463 120 120 2 8 108 116 11728
2116	25444 234 5314463 5314463 120 120 11 8 206 1052 135380
vector 2118  IDSforWSN.node[55].nic.ids  neighbors  ETV
vector 2119  IDSforWSN.node[55].nic.ids  forwardersMap  ETV
2119	25796 128 5314463 5314463 120 120 6 76 106 547 50605
2118	25924 388 5314463 5314463 120 120 18 1 245 2139 328787
vector 2120  IDSforWSN.node[56].nic.ids  neighbors  ETV
vector 2121  IDSforWSN.node[56].nic.ids  forwardersMap  ETV
2121	26430 129 5314463 5314463 120 120 6 13 203 632 87832
2120	26559 324 5314463 5314463 120 120 15 3 234 1984 342922
vector 2122  IDSforWSN.node[57].nic.ids  neighbors  ETV
vector 2123  IDSforWSN.node[57].nic.ids  forwardersMap  ETV
2123	27001 86 5314463 5314463 120 120 4 13 203 439 68103
2122	27087 256 5314463 5314463 120 120 12 3 234 1197 174073
vector 2124  IDSforWSN.node[58].nic.ids  neighbors  ETV
vector 2125  IDSforWSN.node[58].nic.ids  forwardersMap  ETV
2125	27461 44 5314463 5314463 120 120 2 102 127 229 26533
2124	27505 175 5314463 5314463 120 120 8 91 232 1277 224917
vector 2126  IDSforWSN.node[59].nic.ids  neighbors  ETV
vector 2127  IDSforWSN.node[59].nic.ids  forwardersMap  ETV
2127	27798 66 5314463 5314463 120 120 3 116 239 561 113013
2126	27864 238 5314463 5314463 120 120 11 8 246 1612 308660
vector 2128  IDSforWSN.node[60].nic.ids  neighbors  ETV
vector 2129  IDSforWSN.node[60].nic.ids  forwardersMap  ETV
2129	28220 128 5314463 5314463 120 120 6 54 211 634 82476
2128	28348 277 5314463 5314463 120 120 13 20 211 1111 139109
vector 2130  IDSforWSN.node[61].nic.ids  neighbors  ETV
vector 2131  IDSforWSN.node[61].nic.ids  forwardersMap  ETV
2131	28743 43 5314463 5314463 120 120 2 44 107 151 13385
2130	28786 195 5314463 5314463 120 120 9 44 193 1096 157372
vector 2132  IDSforWSN.node[62].nic.ids  neighbors  ETV
vector 2133  IDSforWSN.node[62].nic.ids  forwardersMap  ETV
2133	29099 171 5314463 5314463 120 120 8 22 211 767 108171
2132	29270 387 5314463 5314463 120 120 18 22 249 2018 311516
vector 2134  IDSforWSN.node[63].nic.ids  neighbors  ETV
vector 2135  IDSforWSN.node[63].nic.ids  forwardersMap  ETV
2135	29775 86 5314463 5314463 120 120 4 20 211 443 67491
2134	29861 235 5314463 5314463 120 120 11 20 211 1018 139564
vector 2136  IDSforWSN.node[64].nic.ids  neighbors  ETV
vector 2137  IDSforWSN.node[64].nic.ids  forwardersMap  ETV
2137	30214 43 5314463 5314463 120 120 2 61 169 230 32282
2136	30257 131 5314463 5314463 120 120 6 61 227 903 152367
vector 2138  IDSforWSN.node[65].nic.ids  neighbors  ETV
vector 2139  IDSforWSN.node[65].nic.ids  forwardersMap  ETV
2139	30506 84 5314463 5314463 120 120 4 49 90 295 22677
2138	30590 301 5314463 5314463 120 120 14 1 248 1668 270652
vector 2140  IDSforWSN.node[66].nic.ids  neighbors  ETV
vector 2141  IDSforWSN.node[66].nic.ids  forwardersMap  ETV
2141	31009 131 5314463 5314463 120 120 6 78 230 1057 199841
2140	31140 305 5314463 5314463 120 120 14 11 230 2302 431238
vector 2142  IDSforWSN.node[67].nic.ids  neighbors  ETV
vector 2143  IDSforWSN.node[67].nic.ids  forwardersMap  ETV
2143	31563 170 5314463 5314463 120 120 8 0 241 859 155243
2142	31733 367 5314463 5314463 120 120 17 0 241 2277 410935
vector 2144  IDSforWSN.node[68].nic.ids  neighbors  ETV
vector 2145  IDSforWSN.node[68].nic.ids  forwardersMap  ETV
2145	32218 105 5314463 5314463 120 120 5 0 116 255 23195
2144	32323 343 5314463 5314463 120 120 16 0 237 1557 231545
vector 2146  IDSforWSN.node[69].nic.ids  neighbors  ETV
vector 2147  IDSforWSN.node[69].nic.ids  forwardersMap  ETV
2147	32784 109 5314463 5314463 120 120 5 31 199 605 88373
2146	32893 263 5314463 5314463 120 120 12 31 249 1781 298441
vector 2148  IDSforWSN.node[70].nic.ids  neighbors  ETV
vector 2149  IDSforWSN.node[70].nic.ids  forwardersMap  ETV
2149	33274 126 5314463 5314463 120 120 6 8 113 295 24565
2148	33400 363 5314463 5314463 120 120 17 8 211 1515 202875
vector 2150  IDSforWSN.node[71].nic.ids  neighbors  ETV
vector 2151  IDSforWSN.node[71].nic.ids  forwardersMap  ETV
2151	33881 66 5314463 5314463 120 120 3 169 226 591 118053
2150	33947 237 5314463 5314463 120 120 11 2 247 1552 302014
vector 2152  IDSforWSN.node[72].nic.ids  neighbors  ETV
vector 2153  IDSforWSN.node[72].nic.ids  forwardersMap  ETV
2153	34302 65 5314463 5314463 120 120 3 44 149 300 35586
2152	34367 261 5314463 5314463 120 120 12 44 199 1566 235660
vector 2154  IDSforWSN.node[73].nic.ids  neighbors  ETV
vector 2155  IDSforWSN.node[73].nic.ids  forwardersMap  ETV
2155	34746 87 5314463 5314463 120 120 4 81 236 738 151242
2154	34833 281 5314463 5314463 120 120 13 13 236 1742 305764
vector 2156  IDSforWSN.node[74].nic.ids  neighbors  ETV
vector 2157  IDSforWSN.node[74].nic.ids  forwardersMap  ETV
2157	35232 42 5314463 5314463 120 120 2 29 70 99 5741
2156	35274 257 5314463 5314463 120 120 12 22 195 1212 163664
vector 2158  IDSforWSN.node[75].nic.ids  neighbors  ETV
vector 2159  IDSforWSN.node[75].nic.ids  forwardersMap  ETV
2159	35649 65 5314463 5314463 120 120 3 31 164 314 42018
2158	35714 216 5314463 5314463 120 120 10 31 219 1261 187951
vector 2160  IDSforWSN.node[76].nic.ids  neighbors  ETV
vector 2161  IDSforWSN.node[76].nic.ids  forwardersMap  ETV
2161	36048 107 5314463 5314463 120 120 5 80 108 465 43913
2160	36155 408 5314463 5314463 120 120 19 1 245 1955 276157
vector 2162  IDSforWSN.node[77].nic.ids  neighbors  ETV
vector 2163  IDSforWSN.node[77].nic.ids  forwardersMap  ETV
2163	36681 66 5314463 5314463 120 120 3 127 189 468 74954
2162	36747 174 5314463 5314463 120 120 8 25 232 1248 230760
vector 2164  IDSforWSN.node[78].nic.ids  neighbors  ETV
vector 2165  IDSforWSN.node[78].nic.ids  forwardersMap  ETV
2165	37039 88 5314463 5314463 120 120 4 167 201 718 129542
2164	37127 326 5314463 5314463 120 120 15 11 238 2178 373540
vector 2166  IDSforWSN.node[79].nic.ids  neighbors  ETV
vector 2167  IDSforWSN.node[79].nic.ids  forwardersMap  ETV
2167	37571 150 5314463 5314463 120 120 7 6 236 951 189083
2166	37721 323 5314463 5314463 120 120 15 6 236 1806 301824
vector 2168  IDSforWSN.node[80].nic.ids  neighbors  ETV
vector 2169  IDSforWSN.node[80].nic.ids  forwardersMap  ETV
2169	38162 106 5314463 5314463 120 120 5 49 108 383 31805
2168	38268 298 5314463 5314463 120 120 14 1 245 1327 179829
vector 2170  IDSforWSN.node[81].nic.ids  neighbors  ETV
vector 2171  IDSforWSN.node[81].nic.ids  forwardersMap  ETV
2171	38684 108 5314463 5314463 120 120 5 13 224 649 114647
2170	38792 278 5314463 5314463 120 120 13 6 224 1338 204716
vector 2172  IDSforWSN.node[82].nic.ids  neighbors  ETV
vector 2173  IDSforWSN.node[82].nic.ids  forwardersMap  ETV
2173	39188 129 5314463 5314463 120 120 6 54 185 629 75499
2172	39317 384 5314463 5314463 120 120 18 1 245 1630 219304
vector 2174  IDSforWSN.node[83].nic.ids  neighbors  ETV
vector 2175  IDSforWSN.node[83].nic.ids  forwardersMap  ETV
2175	39819 22 5314463 5314463 120 120 1 235 235 235 55225
2174	39841 86 5314463 5314463 120 120 4 2 235 562 115122
vector 2176  IDSforWSN.node[84].nic.ids  neighbors  ETV
vector 2177  IDSforWSN.node[84].nic.ids  forwardersMap  ETV
2177	40045 42 5314463 5314463 120 120 2 39 57 96 4770
2176	40087 107 5314463 5314463 120 120 5 39 140 458 49462
vector 2178  IDSforWSN.node[85].nic.ids  neighbors  ETV
vector 2179  IDSforWSN.node[85].nic.ids  forwardersMap  ETV
2179	40312 128 5314463 5314463 120 120 6 22 211 612 93308
2178	40440 299 5314463 5314463 120 120 14 22 249 1500 231130
vector 2180  IDSforWSN.node[86].nic.ids  neighbors  ETV
vector 2181  IDSforWSN.node[86].nic.ids  forwardersMap  ETV
2181	40857 22 5314463 5314463 120 120 1 218 218 218 47524
2180	40879 129 5314463 5314463 120 120 6 25 218 686 110714
vector 2182  IDSforWSN.node[87].nic.ids  neighbors  ETV
vector 2183  IDSforWSN.node[87].nic.ids  forwardersMap  ETV
2183	41126 127 5314463 5314463 120 120 6 8 185 457 55993
2182	41253 339 5314463 5314463 120 120 16 1 245 1289 184985
vector 2184  IDSforWSN.node[88].nic.ids  neighbors  ETV
vector 2185  IDSforWSN.node[88].nic.ids  forwardersMap  ETV
2185	41710 87 5314463 5314463 120 120 4 32 190 433 59385
2184	41797 346 5314463 5314463 120 120 16 10 245 1813 292045
vector 2186  IDSforWSN.node[89].nic.ids  neighbors  ETV
vector 2187  IDSforWSN.node[89].nic.ids  forwardersMap  ETV
2187	42261 106 5314463 5314463 120 120 5 22 181 379 45155
2186	42367 280 5314463 5314463 120 120 13 22 249 1510 240926
vector 2188  IDSforWSN.node[90].nic.ids  neighbors  ETV
vector 2189  IDSforWSN.node[90].nic.ids  forwardersMap  ETV
2189	42765 129 5314463 5314463 120 120 6 54 185 621 74123
2188	42894 406 5314463 5314463 120 120 19 1 245 1756 235884
vector 2190  IDSforWSN.node[91].nic.ids  neighbors  ETV
vector 2191  IDSforWSN.node[91].nic.ids  forwardersMap  ETV
2191	43418 66 5314463 5314463 120 120 3 102 164 416 59800
2190	43484 238 5314463 5314463 120 120 11 26 219 1351 199089
vector 2192  IDSforWSN.node[92].nic.ids  neighbors  ETV
vector 2193  IDSforWSN.node[92].nic.ids  forwardersMap  ETV
2193	43840 88 5314463 5314463 120 120 4 127 218 686 122478
2192	43928 239 5314463 5314463 120 120 11 25 232 1571 268525
vector 2194  IDSforWSN.node[93].nic.ids  neighbors  ETV
vector 2195  IDSforWSN.node[93].nic.ids  forwardersMap  ETV
2195	44285 106 5314463 5314463 120 120 5 0 241 435 75379
2194	44391 364 5314463 5314463 120 120 17 0 241 1779 287375
vector 2196  IDSforWSN.node[94].nic.ids  neighbors  ETV
vector 2197  IDSforWSN.node[94].nic.ids  forwardersMap  ETV
2197	44873 65 5314463 5314463 120 120 3 78 176 421 64949
2196	44938 261 5314463 5314463 120 120 12 51 238 1843 322435
vector 2198  IDSforWSN.node[95].nic.ids  neighbors  ETV
vector 2199  IDSforWSN.node[95].nic.ids  forwardersMap  ETV
2199	45317 63 5314463 5314463 120 120 3 17 42 94 3278
2198	45380 214 5314463 5314463 120 120 10 4 243 1227 242763
vector 2200  IDSforWSN.node[96].nic.ids  neighbors  ETV
vector 2201  IDSforWSN.node[96].nic.ids  forwardersMap  ETV
2201	45712 62 5314463 5314463 120 120 3 3 57 99 4779
2200	45774 127 5314463 5314463 120 120 6 3 204 578 89932
vector 2202  IDSforWSN.node[97].nic.ids  neighbors  ETV
vector 2203  IDSforWSN.node[97].nic.ids  forwardersMap  ETV
2203	46019 106 5314463 5314463 120 120 5 2 221 479 82703
2202	46125 280 5314463 5314463 120 120 13 2 247 1607 290979
vector 2204  IDSforWSN.node[98].nic.ids  neighbors  ETV
vector 2205  IDSforWSN.node[98].nic.ids  forwardersMap  ETV
2205	46523 44 5314463 5314463 120 120 2 164 187 351 61865
2204	46567 195 5314463 5314463 120 120 9 26 219 1179 182523
vector 2206  IDSforWSN.node[99].nic.ids  neighbors  ETV
vector 2207  IDSforWSN.node[99].nic.ids  forwardersMap  ETV
2207	46880 107 5314463 5314463 120 120 5 22 211 445 63515
2206	46987 256 5314463 5314463 120 120 12 22 211 1048 129492
vector 2208  IDSforWSN.node[100].nic.ids  neighbors  ETV
vector 2209  IDSforWSN.node[100].nic.ids  forwardersMap  ETV
2209	47363 127 5314463 5314463 120 120 6 0 241 519 82651
2208	47490 386 5314463 5314463 120 120 18 0 241 2124 368468
vector 2210  IDSforWSN.node[101].nic.ids  neighbors  ETV
vector 2211  IDSforWSN.node[101].nic.ids  forwardersMap  ETV
2211	47996 88 5314463 5314463 120 120 4 104 233 709 134689
2210	48084 175 5314463 5314463 120 120 8 47 233 1230 215548
vector 2212  IDSforWSN.node[102].nic.ids  neighbors  ETV
vector 2213  IDSforWSN.node[102].nic.ids  forwardersMap  ETV
2213	48379 66 5314463 5314463 120 120 3 127 189 466 74350
2212	48445 282 5314463 5314463 120 120 13 25 232 1843 325527
vector 2214  IDSforWSN.node[103].nic.ids  neighbors  ETV
vector 2215  IDSforWSN.node[103].nic.ids  forwardersMap  ETV
2215	48847 105 5314463 5314463 120 120 5 2 235 407 67415
2214	48952 257 5314463 5314463 120 120 12 2 235 1468 259178
vector 2216  IDSforWSN.node[104].nic.ids  neighbors  ETV
vector 2217  IDSforWSN.node[104].nic.ids  forwardersMap  ETV
2217	49329 130 5314463 5314463 120 120 6 15 237 823 152623
2216	49459 284 5314463 5314463 120 120 13 15 237 1972 353916
vector 2218  IDSforWSN.node[105].nic.ids  neighbors  ETV
vector 2219  IDSforWSN.node[105].nic.ids  forwardersMap  ETV
2219	49863 85 5314463 5314463 120 120 4 76 106 354 31836
2218	49948 387 5314463 5314463 120 120 18 1 245 2081 319443
vector 2220  IDSforWSN.node[106].nic.ids  neighbors  ETV
vector 2221  IDSforWSN.node[106].nic.ids  forwardersMap  ETV
2221	50455 192 5314463 5314463 120 120 9 32 190 935 118287
2220	50647 494 5314463 5314463 120 120 23 1 245 2564 390522
vector 2222  IDSforWSN.node[107].nic.ids  neighbors  ETV
vector 2223  IDSforWSN.node[107].nic.ids  forwardersMap  ETV
2223	51261 64 5314463 5314463 120 120 3 44 149 255 27981
2222	51325 260 5314463 5314463 120 120 12 44 249 1654 276318
vector 2224  IDSforWSN.node[108].nic.ids  neighbors  ETV
vector 2225  IDSforWSN.node[108].nic.ids  forwardersMap  ETV
2225	51705 84 5314463 5314463 120 120 4 8 185 329 43929
2224	51789 253 5314463 5314463 120 120 12 1 245 1020 145266
vector 2226  IDSforWSN.node[109].nic.ids  neighbors  ETV
vector 2227  IDSforWSN.node[109].nic.ids  forwardersMap  ETV
2227	52162 151 5314463 5314463 120 120 7 31 199 814 118042
2226	52313 281 5314463 5314463 120 120 13 31 249 1711 275819
vector 2228  IDSforWSN.node[110].nic.ids  neighbors  ETV
vector 2229  IDSforWSN.node[110].nic.ids  forwardersMap  ETV
2229	52714 64 5314463 5314463 120 120 3 44 107 212 17106
2228	52778 172 5314463 5314463 120 120 8 44 193 878 120432
vector 2230  IDSforWSN.node[111].nic.ids  neighbors  ETV
vector 2231  IDSforWSN.node[111].nic.ids  forwardersMap  ETV
2231	53070 84 5314463 5314463 120 120 4 2 221 310 54142
2230	53154 235 5314463 5314463 120 120 11 2 247 1197 207977
vector 2232  IDSforWSN.node[112].nic.ids  neighbors  ETV
vector 2233  IDSforWSN.node[112].nic.ids  forwardersMap  ETV
2233	53509 21 5314463 5314463 120 120 1 36 36 36 1296
2232	53530 173 5314463 5314463 120 120 8 14 234 1082 204188
vector 2234  IDSforWSN.node[113].nic.ids  neighbors  ETV
vector 2235  IDSforWSN.node[113].nic.ids  forwardersMap  ETV
2235	53823 84 5314463 5314463 120 120 4 8 211 316 50214
2234	53907 275 5314463 5314463 120 120 13 8 211 974 121580
vector 2236  IDSforWSN.node[114].nic.ids  neighbors  ETV
vector 2237  IDSforWSN.node[114].nic.ids  forwardersMap  ETV
2237	54302 85 5314463 5314463 120 120 4 3 203 383 58867
2236	54387 238 5314463 5314463 120 120 11 3 234 1711 322915
vector 2238  IDSforWSN.node[115].nic.ids  neighbors  ETV
vector 2239  IDSforWSN.node[115].nic.ids  forwardersMap  ETV
2239	54745 127 5314463 5314463 120 120 6 0 241 497 81331
2238	54872 343 5314463 5314463 120 120 16 0 241 1855 326063
vector 2240  IDSforWSN.node[116].nic.ids  neighbors  ETV
vector 2241  IDSforWSN.node[116].nic.ids  forwardersMap  ETV
2241	55335 107 5314463 5314463 120 120 5 19 241 618 113008
2240	55442 342 5314463 5314463 120 120 16 0 246 1862 338040
vector 2242  IDSforWSN.node[117].nic.ids  neighbors  ETV
vector 2243  IDSforWSN.node[117].nic.ids  forwardersMap  ETV
2243	55904 107 5314463 5314463 120 120 5 76 106 457 42537
2242	56011 408 5314463 5314463 120 120 19 1 245 2129 318581
vector 2244  IDSforWSN.node[118].nic.ids  neighbors  ETV
vector 2245  IDSforWSN.node[118].nic.ids  forwardersMap  ETV
2245	56539 86 5314463 5314463 120 120 4 17 212 432 73902
2244	56625 171 5314463 5314463 120 120 8 4 212 794 131154
vector 2246  IDSforWSN.node[119].nic.ids  neighbors  ETV
vector 2247  IDSforWSN.node[119].nic.ids  forwardersMap  ETV
2247	56916 87 5314463 5314463 120 120 4 31 199 560 95524
2246	57003 261 5314463 5314463 120 120 12 31 249 1687 278729
vector 2248  IDSforWSN.node[120].nic.ids  neighbors  ETV
vector 2249  IDSforWSN.node[120].nic.ids  forwardersMap  ETV
2249	57384 64 5314463 5314463 120 120 3 3 203 348 61382
2248	57448 303 5314463 5314463 120 120 14 3 234 1986 359732
vector 2250  IDSforWSN.node[121].nic.ids  neighbors  ETV
vector 2251  IDSforWSN.node[121].nic.ids  forwardersMap  ETV
2251	57871 66 5314463 5314463 120 120 3 124 238 517 96045
2250	57937 262 5314463 5314463 120 120 12 35 240 1857 335863
vector 2252  IDSforWSN.node[122].nic.ids  neighbors  ETV
vector 2253  IDSforWSN.node[122].nic.ids  forwardersMap  ETV
2253	58319 109 5314463 5314463 120 120 5 49 246 926 197070
2252	58428 325 5314463 5314463 120 120 15 12 248 2232 438566
vector 2254  IDSforWSN.node[123].nic.ids  neighbors  ETV
vector 2255  IDSforWSN.node[123].nic.ids  forwardersMap  ETV
2255	58873 44 5314463 5314463 120 120 2 124 155 279 39401
2254	58917 240 5314463 5314463 120 120 11 35 240 1652 292346
vector 2256  IDSforWSN.node[124].nic.ids  neighbors  ETV
vector 2257  IDSforWSN.node[124].nic.ids  forwardersMap  ETV
2257	59277 44 5314463 5314463 120 120 2 165 212 377 72169
2256	59321 217 5314463 5314463 120 120 10 17 242 1326 235270
vector 2258  IDSforWSN.node[125].nic.ids  neighbors  ETV
vector 2259  IDSforWSN.node[125].nic.ids  forwardersMap  ETV
2259	59658 128 5314463 5314463 120 120 6 22 211 544 73316
2258	59786 276 5314463 5314463 120 120 13 22 211 1117 133725
vector 2260  IDSforWSN.node[126].nic.ids  neighbors  ETV
vector 2261  IDSforWSN.node[126].nic.ids  forwardersMap  ETV